Header of the LAMMPS data file 

4 atoms 
1 atom types

0.0 3.9  xlo xhi
0.0 3.9  ylo yhi
0.0 3.9  zlo zhi

Masses 

1  26.98154

Atoms # atomic 

1 1 0.00000 0.00000 0.00000 
2 1 0.00000 1.95000 1.95000 
3 1 1.95000 0.00000 1.95000 
4 1 1.95000 1.95000 0.00000 
